 Gaussian 09, Revision D.01,
 Gaussian 09:  EM64L-G09RevD.01 24-Apr-2013

 -------------------
 # hf/3-21g pop=nbo6
 -------------------

 -------------------
 Title Card Required
 -------------------
 Symbolic Z-matrix:
 Charge =  0 Multiplicity = 1

                         Standard orientation:
 ---------------------------------------------------------------------
 Center     Atomic      Atomic             Coordinates (Angstroms)
 Number     Number       Type             X           Y           Z
 ---------------------------------------------------------------------
      1          6           0        0.000000    0.000000    0.000000
      2          1           0        0.617765    0.617765    0.617765
      3          1           0       -0.617765   -0.617765    0.617765
      4          1           0       -0.617765    0.617765   -0.617765
      5          1           0        0.617765   -0.617765   -0.617765
 ---------------------------------------------------------------------

 SCF Done:  E(RHF) =  -39.9764058483     A.U. after    8 cycles

 The electronic state is 1-A.
 Alpha  occ. eigenvalues --  -11.13826  -0.95125  -0.54830  -0.54830  -0.54830
 Alpha virt. eigenvalues --    0.30001   0.35670   0.35670   0.35670   0.91538
 Alpha virt. eigenvalues --    0.91538   0.91538   1.35396   1.37170   1.37170
 Alpha virt. eigenvalues --    1.37170   1.96130

 Mulliken charges:
               1
     1  C   -0.802355
     2  H    0.200589
     3  H    0.200589
     4  H    0.200589
     5  H    0.200589
 Sum of Mulliken charges =   0.00000

 Dipole moment (field-independent basis, Debye):
    X=              0.0000    Y=              0.0000    Z=              0.0000  Tot=              0.0000
 Quadrupole moment (field-independent basis, Debye-Ang):
   XX=             -8.3575   YY=             -8.3575   ZZ=             -8.3575
   XY=              0.0000   XZ=              0.0000   YZ=              0.0000

 Summary of Natural Population Analysis:

                                     Natural Population
             Natural    ---------------------------------------------
  Atom No    Charge        Core      Valence    Rydberg      Total
 --------------------------------------------------------------------
    C  1   -0.88462      1.99894     4.88568    0.00000     6.88462
    H  2    0.22116      0.00000     0.77822    0.00062     0.77884
    H  3    0.22116      0.00000     0.77822    0.00062     0.77884
    H  4    0.22116      0.00000     0.77822    0.00062     0.77884
    H  5    0.22116      0.00000     0.77822    0.00062     0.77884
 ====================================================================
 * Total *  0.00000      1.99894     7.99857    0.00249    10.00000

 Normal termination of Gaussian 09 at Mon Nov 23 13:12:35 2020.
